#INFO: **** input file is /home/abovill/Jeff-Pyscf/rccsd_gpu/cc_test.py ****
import time
from pyscf import gto, scf, cc
from rccsd_gpu import RCCSD_GPU

# Pentane
atom = """C  -1.05510   -0.65800    0.24460
    C  -0.97160    0.78050   -0.23490
    C   0.29520   -1.23270   -0.15360
    C   0.44690    1.19150    0.13090
    C   1.28460   -0.08140    0.01300
    H  -1.17420   -0.68960    1.33400
    H  -1.88870   -1.20200   -0.20820
    H  -1.10920    0.82650   -1.32170
    H  -1.72400    1.42200    0.23270
    H   0.56830   -2.10410    0.44890
    H   0.27130   -1.54810   -1.20360
    H   0.82100    1.99340   -0.51270
    H   0.47590    1.55600    1.16480
    H   1.89790   -0.21640    0.91060
    H   1.96550   -0.03230   -0.84350"""

caffeine = """O 0.4700    2.5688    0.0006 
    O -3.1271   -0.4436   -0.0003 
    N -0.9686   -1.3125    0.0000 
    N 2.2182    0.1412   -0.0003 
    N -1.3477    1.0797   -0.0001 
    N 1.4119   -1.9372    0.0002 
    C 0.8579    0.2592   -0.0008 
    C 0.3897   -1.0264   -0.0004 
    C 0.0307    1.4220   -0.0006 
    C -1.9061   -0.2495   -0.0004 
    C 2.5032   -1.1998    0.0003 
    C -1.4276   -2.6960    0.0008 
    C 3.1926    1.2061    0.0003 
    C -2.2969    2.1881    0.0007 
    H 3.5163   -1.5787    0.0008 
    H -1.0451   -3.1973   -0.8937 
    H -2.5186   -2.7596    0.0011 
    H -1.0447   -3.1963    0.8957 
    H 4.1992    0.7801    0.0002 
    H 3.0468    1.8092   -0.8992 
    H 3.0466    1.8083    0.9004 
    H -1.8087    3.1651   -0.0003 
    H -2.9322    2.1027    0.8881 
    H -2.9346    2.1021   -0.8849 """

mol = gto.M(atom=caffeine, basis="sto3g", verbose=4, max_memory=50000)
mf = scf.RHF(mol).run()

_t1 = time.time()
my_cc1 = cc.rccsd.RCCSD(mf)
my_cc1.max_cycle = 1
my_cc1.kernel()
print(f"CPU RCCSD time = {time.time()-_t1:.2e} (s)")

_t2 = time.time()
my_cc2 = RCCSD_GPU(mf)
my_cc2.max_cycle = 1
my_cc2.kernel()
print(f"GPU RCCSD time = {time.time()-_t2:.2e} (s)")

#INFO: ******************** input file end ********************


System: uname_result(system='Linux', node='gnode002.cluster', release='4.18.0-425.3.1.el8.x86_64', version='#1 SMP Fri Sep 30 11:45:06 EDT 2022', machine='x86_64', processor='x86_64')  Threads 28
Python 3.8.18 (default, Sep 11 2023, 13:40:15) 
[GCC 11.2.0]
numpy 1.24.3  scipy 1.9.3
Date: Wed Dec  6 11:26:05 2023
PySCF version 2.4.0
PySCF path  /home/abovill/.local/lib/python3.8/site-packages/pyscf

[CONFIG] conf_file None
[INPUT] verbose = 4
[INPUT] num. atoms = 24
[INPUT] num. electrons = 102
[INPUT] charge = 0
[INPUT] spin (= nelec alpha-beta = 2S) = 0
[INPUT] symmetry False subgroup None
[INPUT] Mole.unit = angstrom
[INPUT] Symbol           X                Y                Z      unit          X                Y                Z       unit  Magmom
[INPUT]  1 O      0.470000000000   2.568800000000   0.000600000000 AA    0.888171278546   4.854328468783   0.001133835675 Bohr   0.0
[INPUT]  2 O     -3.127100000000  -0.443600000000  -0.000300000000 AA   -5.909362564127  -0.838282508857  -0.000566917837 Bohr   0.0
[INPUT]  3 N     -0.968600000000  -1.312500000000   0.000000000000 AA   -1.830388724254  -2.480265538492   0.000000000000 Bohr   0.0
[INPUT]  4 N      2.218200000000   0.141200000000  -0.000300000000 AA    4.191790489510   0.266829328789  -0.000566917837 Bohr   0.0
[INPUT]  5 N     -1.347700000000   1.079700000000  -0.000100000000 AA   -2.546783898076   2.040337296693  -0.000188972612 Bohr   0.0
[INPUT]  6 N      1.411900000000  -1.937200000000   0.000200000000 AA    2.668104315273  -3.660777448507   0.000377945225 Bohr   0.0
[INPUT]  7 C      0.857900000000   0.259200000000  -0.000800000000 AA    1.621196042264   0.489817011487  -0.001511780900 Bohr   0.0
[INPUT]  8 C      0.389700000000  -1.026400000000  -0.000400000000 AA    0.736426270743  -1.939614894254  -0.000755890450 Bohr   0.0
[INPUT]  9 C      0.030700000000   1.422000000000  -0.000600000000 AA    0.058014592024   2.687190549132  -0.001133835675 Bohr   0.0
[INPUT] 10 C     -1.906100000000  -0.249500000000  -0.000400000000 AA   -3.602006966033  -0.471486668079  -0.000755890450 Bohr   0.0
[INPUT] 11 C      2.503200000000  -1.199800000000   0.000300000000 AA    4.730362435011  -2.267293404253   0.000566917837 Bohr   0.0
[INPUT] 12 C     -1.427600000000  -2.696000000000   0.000800000000 AA   -2.697773015429  -5.094701631827   0.001511780900 Bohr   0.0
[INPUT] 13 C      3.192600000000   1.206100000000   0.000300000000 AA    6.033139625286   2.279198678838   0.000566917837 Bohr   0.0
[INPUT] 14 C     -2.296900000000   2.188100000000   0.000700000000 AA   -4.340511935513   4.134909733161   0.001322808287 Bohr   0.0
[INPUT] 15 H      3.516300000000  -1.578700000000   0.000800000000 AA    6.644843971808  -2.983310632851   0.001511780900 Bohr   0.0
[INPUT] 16 H     -1.045100000000  -3.197300000000  -0.893700000000 AA   -1.974952772783  -6.042021338072  -1.688848237524 Bohr   0.0
[INPUT] 17 H     -2.518600000000  -2.759600000000   0.001100000000 AA   -4.759464217330  -5.214888213350   0.002078698737 Bohr   0.0
[INPUT] 18 H     -1.044700000000  -3.196300000000   0.895700000000 AA   -1.974196882333  -6.040131611947   1.692627689773 Bohr   0.0
[INPUT] 19 H      4.199200000000   0.780100000000   0.000200000000 AA    7.935337942274   1.474175349773   0.000377945225 Bohr   0.0
[INPUT] 20 H      3.046800000000   1.809200000000  -0.899200000000 AA    5.757617556325   3.418892504563  -1.699241731209 Bohr   0.0
[INPUT] 21 H      3.046600000000   1.808300000000   0.900400000000 AA    5.757239611100   3.417191751051   1.701509402558 Bohr   0.0
[INPUT] 22 H     -1.808700000000   3.165100000000  -0.000300000000 AA   -3.417947641501   5.981172156861  -0.000566917837 Bohr   0.0
[INPUT] 23 H     -2.932200000000   2.102700000000   0.888100000000 AA   -5.541054942450   3.973527122123   1.678265771226 Bohr   0.0
[INPUT] 24 H     -2.934600000000   2.102100000000  -0.884900000000 AA   -5.545590285149   3.972393286448  -1.672218647628 Bohr   0.0

nuclear repulsion = 925.523338290309
number of shells = 52
number of NR pGTOs = 240
number of NR cGTOs = 80
basis = sto3g
ecp = {}
CPU time:         0.45


******** <class 'pyscf.scf.hf.RHF'> ********
method = RHF
initial guess = minao
damping factor = 0
level_shift factor = 0
DIIS = <class 'pyscf.scf.diis.CDIIS'>
diis_start_cycle = 1
diis_space = 8
SCF conv_tol = 1e-09
SCF conv_tol_grad = None
SCF max_cycles = 50
direct_scf = True
direct_scf_tol = 1e-13
chkfile to save SCF result = /tmp/tmp4a094de2
max_memory 50000 MB (current use 219 MB)
Set gradient conv threshold to 3.16228e-05
Initial guess from minao.
init E= -672.387223064972
  HOMO = -0.154723652961135  LUMO = 0.0798332581673066
cycle= 1 E= -667.286185852501  delta_E=  5.1  |g|= 1.07  |ddm|= 6.99
  HOMO = -0.121099495363985  LUMO = 0.159936299917247
cycle= 2 E= -667.474328668635  delta_E= -0.188  |g|= 0.988  |ddm|= 2.51
  HOMO = -0.20883031221155  LUMO = 0.217579695008854
cycle= 3 E= -667.715547306812  delta_E= -0.241  |g|= 0.109  |ddm|= 1.17
  HOMO = -0.221230843681011  LUMO = 0.226112749144505
cycle= 4 E= -667.722219766159  delta_E= -0.00667  |g|= 0.0527  |ddm|= 0.249
  HOMO = -0.224798247528279  LUMO = 0.225895359606698
cycle= 5 E= -667.723846734552  delta_E= -0.00163  |g|= 0.0195  |ddm|= 0.122
  HOMO = -0.22449466116007  LUMO = 0.226172450292287
cycle= 6 E= -667.724144214571  delta_E= -0.000297  |g|= 0.00922  |ddm|= 0.059
  HOMO = -0.224417011656031  LUMO = 0.226036475600833
cycle= 7 E= -667.724198260414  delta_E= -5.4e-05  |g|= 0.00291  |ddm|= 0.0259
  HOMO = -0.224464215055968  LUMO = 0.226321967366452
cycle= 8 E= -667.724203427186  delta_E= -5.17e-06  |g|= 0.00109  |ddm|= 0.0076
  HOMO = -0.224432598481162  LUMO = 0.226338127760087
cycle= 9 E= -667.72420422135  delta_E= -7.94e-07  |g|= 0.000283  |ddm|= 0.00374
  HOMO = -0.224413860973687  LUMO = 0.226290563054392
cycle= 10 E= -667.724204262073  delta_E= -4.07e-08  |g|= 9.39e-05  |ddm|= 0.000637
  HOMO = -0.224405224887353  LUMO = 0.226290714976394
cycle= 11 E= -667.724204268444  delta_E= -6.37e-09  |g|= 4.53e-05  |ddm|= 0.000225
  HOMO = -0.224402417694497  LUMO = 0.226289478431834
cycle= 12 E= -667.724204269979  delta_E= -1.53e-09  |g|= 1.94e-05  |ddm|= 0.000132
  HOMO = -0.224403318467172  LUMO = 0.226288133003709
cycle= 13 E= -667.72420427026  delta_E= -2.81e-10  |g|= 5.61e-06  |ddm|= 6.4e-05
  HOMO = -0.224403186675665  LUMO = 0.226288026490171
Extra cycle  E= -667.724204270279  delta_E= -1.89e-11  |g|= 3.16e-06  |ddm|= 1.1e-05
converged SCF energy = -667.724204270279

******** <class 'pyscf.cc.rccsd.RCCSD'> ********
CC2 = 0
CCSD nocc = 51, nmo = 80
max_cycle = 1
direct = 0
conv_tol = 1e-07
conv_tol_normt = 1e-05
diis_space = 6
diis_start_cycle = 0
diis_start_energy_diff = 1e+09
max_memory 50000 MB (current use 651 MB)
Init t2, MP2 energy = -668.496470567051  E_corr(MP2) -0.772266296772862
Init E_corr(RCCSD) = -0.77226629677759
cycle = 1  E_corr(RCCSD) = -0.83582501766898  dE = -0.0635587209  norm(t1,t2) = 0.119576
RCCSD not converged
E(RCCSD) = -668.5600292879475  E_corr = -0.8358250176689801
CPU RCCSD time = 2.26e+00 (s)

******** <class 'rccsd_gpu.RCCSD_GPU'> ********
CC2 = 0
CCSD nocc = 51, nmo = 80
max_cycle = 1
direct = 0
conv_tol = 1e-07
conv_tol_normt = 1e-05
diis_space = 6
diis_start_cycle = 0
diis_start_energy_diff = 1e+09
max_memory 50000 MB (current use 675 MB)
Init t2, MP2 energy = -668.496470567052  E_corr(MP2) -0.772266296772865
Init E_corr(RCCSD_GPU) = -0.772266296777593
JAMES' GPU CCSD
JAMES' GPU CCSD
JAMES' GPU CCSD
JAMES' GPU CCSD
JAMES' GPU CCSD
cycle = 1  E_corr(RCCSD_GPU) = -0.835825017668983  dE = -0.0635587209  norm(t1,t2) = 0.119576
RCCSD_GPU not converged
E(RCCSD_GPU) = -668.5600292879477  E_corr = -0.835825017668983
GPU RCCSD time = 1.36e+01 (s)
